# Configuration file for the initial conditions of the chevron-like molecules simulations

60 atoms
99 bonds
6 atom types
1 bond types
-20.0 20.0 xlo xhi
-20.0 20.0 ylo yhi
-0.25 0.25 zlo zhi

Masses

1 1
2 1
3 1
4 1
5 1
6 1


Atoms

1 1 1 -8.0000000 0.0000000 0.0000000
2 1 2 -7.5000000 0.8660254 0.0000000
3 1 3 -8.5000000 0.8660254 0.0000000
4 1 4 -9.0000000 0.0000000 0.0000000
5 1 5 -8.5000000 -0.8660254 0.0000000
6 1 6 -7.5000000 -0.8660254 0.0000000
7 2 1 -6.0000000 0.0000000 0.0000000
8 2 2 -5.5000000 0.8660254 0.0000000
9 2 3 -6.5000000 0.8660254 0.0000000
10 2 4 -7.0000000 0.0000000 0.0000000
11 2 5 -6.5000000 -0.8660254 0.0000000
12 2 6 -5.5000000 -0.8660254 0.0000000
13 3 1 -4.0000000 0.0000000 0.0000000
14 3 2 -3.5000000 0.8660254 0.0000000
15 3 3 -4.5000000 0.8660254 0.0000000
16 3 4 -5.0000000 0.0000000 0.0000000
17 3 5 -4.5000000 -0.8660254 0.0000000
18 3 6 -3.5000000 -0.8660254 0.0000000
19 4 1 -2.0000000 0.0000000 0.0000000
20 4 2 -1.5000000 0.8660254 0.0000000
21 4 3 -2.5000000 0.8660254 0.0000000
22 4 4 -3.0000000 0.0000000 0.0000000
23 4 5 -2.5000000 -0.8660254 0.0000000
24 4 6 -1.5000000 -0.8660254 0.0000000
25 5 1 0.0000000 0.0000000 0.0000000
26 5 2 0.5000000 0.8660254 0.0000000
27 5 3 -0.5000000 0.8660254 0.0000000
28 5 4 -1.0000000 0.0000000 0.0000000
29 5 5 -0.5000000 -0.8660254 0.0000000
30 5 6 0.5000000 -0.8660254 0.0000000
31 6 1 2.0000000 0.0000000 0.0000000
32 6 2 2.5000000 0.8660254 0.0000000
33 6 3 1.5000000 0.8660254 0.0000000
34 6 4 1.0000000 0.0000000 0.0000000
35 6 5 1.5000000 -0.8660254 0.0000000
36 6 6 2.5000000 -0.8660254 0.0000000
37 7 1 4.0000000 0.0000000 0.0000000
38 7 2 4.5000000 0.8660254 0.0000000
39 7 3 3.5000000 0.8660254 0.0000000
40 7 4 3.0000000 0.0000000 0.0000000
41 7 5 3.5000000 -0.8660254 0.0000000
42 7 6 4.5000000 -0.8660254 0.0000000
43 8 1 6.0000000 0.0000000 0.0000000
44 8 2 6.5000000 0.8660254 0.0000000
45 8 3 5.5000000 0.8660254 0.0000000
46 8 4 5.0000000 0.0000000 0.0000000
47 8 5 5.5000000 -0.8660254 0.0000000
48 8 6 6.5000000 -0.8660254 0.0000000
49 9 1 8.0000000 0.0000000 0.0000000
50 9 2 8.5000000 0.8660254 0.0000000
51 9 3 7.5000000 0.8660254 0.0000000
52 9 4 7.0000000 0.0000000 0.0000000
53 9 5 7.5000000 -0.8660254 0.0000000
54 9 6 8.5000000 -0.8660254 0.0000000
55 10 1 10.0000000 0.0000000 0.0000000
56 10 2 10.5000000 0.8660254 0.0000000
57 10 3 9.5000000 0.8660254 0.0000000
58 10 4 9.0000000 0.0000000 0.0000000
59 10 5 9.5000000 -0.8660254 0.0000000
60 10 6 10.5000000 -0.8660254 0.0000000

Bonds

1 1 1 2
2 1 1 3
3 1 1 5
4 1 1 6
5 1 2 3
6 1 3 4
7 1 4 5
8 1 5 6
9 1 7 8
10 1 7 9
11 1 7 11
12 1 7 12
13 1 8 9
14 1 9 10
15 1 10 11
16 1 11 12
17 1 13 14
18 1 13 15
19 1 13 17
20 1 13 18
21 1 14 15
22 1 15 16
23 1 16 17
24 1 17 18
25 1 19 20
26 1 19 21
27 1 19 23
28 1 19 24
29 1 20 21
30 1 21 22
31 1 22 23
32 1 23 24
25 1 25 26
26 1 25 27
27 1 25 29
28 1 25 30
29 1 26 27
30 1 27 28
31 1 28 29
32 1 29 30
33 1 31 32
34 1 31 33
35 1 31 35
36 1 31 36
37 1 32 33
38 1 33 34
39 1 34 35
40 1 35 36
41 1 37 38
42 1 37 39
43 1 37 41
44 1 37 42
45 1 38 39
46 1 39 40
47 1 40 41
48 1 41 42
49 1 43 44
50 1 43 45
51 1 43 47
52 1 43 48
53 1 44 45
54 1 45 46
55 1 46 47
56 1 47 48
57 1 49 50
58 1 49 51
59 1 49 53
60 1 49 54
61 1 50 51
62 1 51 52
63 1 52 53
64 1 53 54
65 1 55 56
66 1 55 57
67 1 55 59
68 1 55 60
69 1 56 57
70 1 57 58
71 1 58 59
72 1 59 60
73 1 1 10
74 1 2 9
75 1 6 11
76 1 7 16
77 1 8 15
78 1 12 17
79 1 13 22
80 1 14 21
81 1 18 23
82 1 19 28
83 1 20 27
84 1 24 29
85 1 25 34
86 1 26 33
87 1 30 35
88 1 31 40
89 1 32 39
90 1 36 41
91 1 37 46
92 1 38 45
93 1 42 47
94 1 43 52
95 1 44 51
96 1 48 53
97 1 49 58
98 1 50 57
99 1 54 59
