# Configuration file for the initial conditions of the chevron-like molecules simulations

12 atoms
18 bonds
12 atom types
1 bond types
-20.0 20.0 xlo xhi
-20.0 20.0 ylo yhi
-0.25 0.25 zlo zhi

Masses

1 1
2 1
3 1
4 1
5 1
6 1
7 1
8 1
9 1
10 1
11 1
12 1


Atoms

1 1 1 0.0000000 0.0000000 0.0000000
2 1 2 0.0000000 1.0000000 0.0000000
3 1 3 -0.8660254 0.5000000 0.0000000
4 1 4 -1.73205081 0.0000000 0.0000000
5 1 5 -0.8660254 -0.5000000 0.0000000
6 1 6 0.0000000 -1.0000000 0.0000000
7 2 7 2.0000000 0.0000000 0.0000000
8 2 8 2.5000000 0.8660254 0.0000000
9 2 9 1.5000000 0.8660254 0.0000000
10 2 10 1.0000000 0.0000000 0.0000000
11 2 11 1.5000000 -0.8660254 0.0000000
12 2 12 2.5000000 -0.8660254 0.0000000

Bonds

1 1 1 2
2 1 1 3
3 1 1 5
4 1 1 6
5 1 2 3
6 1 3 4
7 1 4 5
8 1 5 6
9 1 7 8
10 1 7 9
11 1 7 11
12 1 7 12
13 1 8 9
14 1 9 10
15 1 10 11
16 1 11 12
17 1 1 10
18 1 7 10
